 Gaussian 16, Revision A.03,
 Gaussian 16:  ES64L-G16RevA.03 25-Dec-2016

 ------------------------------
 # wB97XD gen freq=(Anharmonic)
 ------------------------------

 -------
 3bp PES
 -------
 Symbolic Z-matrix:
 Charge =  0 Multiplicity = 1

                         Standard orientation:
 ---------------------------------------------------------------------
 Center     Atomic      Atomic             Coordinates (Angstroms)
 Number     Number       Type             X           Y           Z
 ---------------------------------------------------------------------
      1          6           0        0.000000    0.785581    0.000000
      2          6           0       -2.246967   -0.456155    0.000000
      3          8           0       -0.185489   -1.633499    0.000000
      4          6           0       -0.702996   -0.543547    0.000000
      5          8           0       -2.834635    0.590623    0.000000
      6          8           0       -2.821274   -1.650630    0.000000
      7          1           0       -0.315050    1.359590    0.882550
      8         35           0        1.918754    0.640501    0.000000
      9          1           0       -0.315050    1.359590   -0.882550
     10          1           0       -2.095316   -2.303920    0.000000
 ---------------------------------------------------------------------

 SCF Done:  E(RwB97XD) =  -2915.90332813     A.U. after   14 cycles
 SCF Done:  E(RwB97XD) =  -2915.90332810     A.U. after    8 cycles
 SCF Done:  E(RwB97XD) =  -2915.90332810     A.U. after    8 cycles
 SCF Done:  E(RwB97XD) =  -2915.90332806     A.U. after    8 cycles
 SCF Done:  E(RwB97XD) =  -2915.90332806     A.U. after    8 cycles
 SCF Done:  E(RwB97XD) =  -2915.90332785     A.U. after    8 cycles
 SCF Done:  E(RwB97XD) =  -2915.90332812     A.U. after    8 cycles
 SCF Done:  E(RwB97XD) =  -2915.90332799     A.U. after    8 cycles
 SCF Done:  E(RwB97XD) =  -2915.90332765     A.U. after    8 cycles
 SCF Done:  E(RwB97XD) =  -2915.90332683     A.U. after    8 cycles
 SCF Done:  E(RwB97XD) =  -2915.90330443     A.U. after    9 cycles
 SCF Done:  E(RwB97XD) =  -2915.90330507     A.U. after   10 cycles
 SCF Done:  E(RwB97XD) =  -2915.90330335     A.U. after    9 cycles
 SCF Done:  E(RwB97XD) =  -2915.90330359     A.U. after    9 cycles
 SCF Done:  E(RwB97XD) =  -2915.90326164     A.U. after    9 cycles
 SCF Done:  E(RwB97XD) =  -2915.90326401     A.U. after    9 cycles
 SCF Done:  E(RwB97XD) =  -2915.90326034     A.U. after   10 cycles
 SCF Done:  E(RwB97XD) =  -2915.90326034     A.U. after   10 cycles
 SCF Done:  E(RwB97XD) =  -2915.90323781     A.U. after    9 cycles
 SCF Done:  E(RwB97XD) =  -2915.90323506     A.U. after    9 cycles

 Alpha  occ. eigenvalues -- -483.17067 -62.72257 -56.51485 -56.51116 -56.51113
 Alpha  occ. eigenvalues --  -19.33900 -19.32582 -19.28706 -10.46135 -10.44544
 Alpha  occ. eigenvalues --  -10.38865  -8.84966  -6.67242  -6.65841  -6.65830
 Alpha  occ. eigenvalues --   -2.77196  -2.76793  -2.76785  -2.75656  -2.75656
 Alpha  occ. eigenvalues --   -1.25122  -1.20718  -1.16114  -0.94850  -0.85119
 Alpha  occ. eigenvalues --   -0.76412  -0.71904  -0.64653  -0.60545  -0.59083
 Alpha  occ. eigenvalues --   -0.55867  -0.55658  -0.52781  -0.50068  -0.48338
 Alpha  occ. eigenvalues --   -0.44643  -0.43292  -0.38550  -0.38103  -0.36722
 Alpha virt. eigenvalues --   -0.02917   0.04516   0.09902   0.10869   0.12373
 Alpha virt. eigenvalues --    0.12516   0.13145   0.16021   0.20504   0.20607
 Alpha virt. eigenvalues --    0.25038   0.31328   0.31650   0.32873   0.33370

 Mulliken charges:
               1
     1  C   -0.160221
     2  C    0.211155
     3  O   -0.180229
     4  C    0.082062
     5  O   -0.209570
     6  O   -0.125620
     7  H    0.130768
     8  Br  -0.048669
     9  H    0.130768
    10  H    0.169556
 Sum of Mulliken charges =  -0.00000

 Dipole moment (field-independent basis, Debye):
    X=              0.3695    Y=             -0.2618    Z=             -0.0000  Tot=              0.4528
 Quadrupole moment (field-independent basis, Debye-Ang):
   XX=            -63.1050   YY=            -50.4074   ZZ=            -49.7590
   XY=              3.2624   XZ=              0.0000   YZ=              0.0000

  Exact polarizability:  72.647   2.395  61.407  -0.000   0.000  39.423
 Approx polarizability:  74.896  -6.752  78.112   0.000  -0.000  47.305

                      1                      2                      3
                     A"                     A"                     A'
 Frequencies --     57.6332               101.7205               144.6866
 Red. masses --      4.2087                 5.3510                 9.4338
 Frc consts  --      0.0082                 0.0326                 0.1164
 IR Inten    --      4.4113                 9.2055                 5.5993

                      4                      5                      6
                     A'                     A'                     A"
 Frequencies --    213.5982               350.0600               383.4089
 Red. masses --     20.0852                 6.4248                 3.7389
 Frc consts  --      0.5399                 0.4639                 0.3238
 IR Inten    --      9.8259                34.6598                 9.8514

                      7                      8                      9
                     A'                     A'                     A"
 Frequencies --    519.7559               669.4207               671.3438
 Red. masses --     10.9776                 6.6120                 2.0774
 Frc consts  --      1.7473                 1.7457                 0.5516
 IR Inten    --      4.8875                39.7278                58.3805

                     10                     11                     12
                     A"                     A'                     A'
 Frequencies --    724.8351               745.0505               827.3216
 Red. masses --      1.2227                 5.5628                 7.5631
 Frc consts  --      0.3785                 1.8193                 3.0500
 IR Inten    --     46.9174                 8.8354                 8.1200

                     13                     14                     15
                     A"                     A'                     A"
 Frequencies --    896.8487              1078.0554              1148.2650
 Red. masses --      2.5513                 2.4640                 1.1498
 Frc consts  --      1.2091                 1.6872                 0.8932
 IR Inten    --      2.9326                88.9161                 0.7270

                     16                     17                     18
                     A'                     A'                     A'
 Frequencies --   1228.7026              1305.2278              1404.7591
 Red. masses --      1.8041                 1.7562                 1.1365
 Frc consts  --      1.6048                 1.7628                 1.3213
 IR Inten    --     17.3457                71.5570               115.5866

                     19                     20                     21
                     A'                     A'                     A'
 Frequencies --   1436.0703              1859.9506              1910.1140
 Red. masses --      2.8700                12.4653                10.9542
 Frc consts  --      3.4872                25.4072                23.5477
 IR Inten    --    287.7531               103.9148               222.2431

                     22                     23                     24
                     A'                     A"                     A'
 Frequencies --   3108.6130              3167.2712              3682.7867
 Red. masses --      1.0607                 1.1042                 1.0647
 Frc consts  --      6.0390                 6.5263                 8.5077
 IR Inten    --     12.4752                 5.0996               122.5030

 - Thermochemistry -
 -------------------
 Temperature   298.150 Kelvin.  Pressure   1.00000 Atm.
 Atom     1 has atomic number  6 and mass  12.00000

 Molecular mass:   165.92656 amu.
 Principal axes and moments of inertia in atomic units:
                           1         2         3
     Eigenvalues --   332.584572400.733542722.10513
           X            0.95133  -0.30818   0.00000
           Y            0.30818   0.95133   0.00000
           Z            0.00000  -0.00000   1.00000
 This molecule is an asymmetric top.
 Rotational symmetry number  1.
 Rotational temperatures (Kelvin)      0.26043     0.03608     0.03182
 Rotational constants (GHZ):           5.42641     0.75175     0.66299
 Zero-point vibrational energy     165297.0 (Joules/Mol)
                                   39.50693 (Kcal/Mol)
 Warning -- explicit consideration of   7 degrees of freedom as
           vibrations may cause significant error
 Vibrational temperatures:     82.92   146.35   208.17   307.32   503.66
          (Kelvin)            551.64   747.81   963.15   965.91  1042.88
                             1071.96  1190.33  1290.37  1551.08  1652.10
                             1767.83  1877.93  2021.14  2066.18  2676.05
                             2748.23  4472.60  4557.00  5298.71

 Zero-point correction=                           0.062958 (Hartree/Particle)
 Thermal correction to Energy=                    0.070094
 Thermal correction to Enthalpy=                  0.071039
 Thermal correction to Gibbs Free Energy=         0.029381
 Sum of electronic and zero-point Energies=          -2915.840370
 Sum of electronic and thermal Energies=             -2915.833234
 Sum of electronic and thermal Enthalpies=           -2915.832289
 Sum of electronic and thermal Free Energies=        -2915.873947

                     E (Thermal)             CV                S
                      KCal/Mol        Cal/Mol-Kelvin    Cal/Mol-Kelvin
 Total                   43.985             23.420             87.675
 Electronic               0.000              0.000              0.000
 Translational            0.889              2.981             41.227
 Rotational               0.889              2.981             29.165
 Vibrational             42.207             17.459             17.283
 Vibration     1          0.596              1.974              4.537
 Vibration     2          0.604              1.948              3.421
 Vibration     3          0.616              1.908              2.741
 Vibration     4          0.644              1.820              2.013
 Vibration     5          0.727              1.575              1.166
 Vibration     6          0.753              1.506              1.026
 Vibration     7          0.875              1.206              0.611

 ## DEPERTURBED TRANSITIONS MOMENTS ##

 Electric dipole : Fundamental Bands
 ------------------------------------------------------------------------

 ## AFTER VARIATIONAL CORRECTION

 Electric dipole : Fundamental Bands
 ------------------------------------------------------------------------

 Normal termination of Gaussian 16 at Mon May 27 17:55:33 2024.
