 Gaussian 16, Revision A.03,
 Gaussian 16:  ES64L-G16RevA.03 25-Dec-2016

 ------------------------------
 # wB97XD gen freq=(Anharmonic)
 ------------------------------

 -------
 3bp PES
 -------
 Symbolic Z-matrix:
 Charge = -1 Multiplicity = 2

                         Standard orientation:
 ---------------------------------------------------------------------
 Center     Atomic      Atomic             Coordinates (Angstroms)
 Number     Number       Type             X           Y           Z
 ---------------------------------------------------------------------
      1          6           0        0.000000    0.785581    0.000000
      2          6           0       -2.246967   -0.456155    0.000000
      3          8           0       -0.185489   -1.633499    0.000000
      4          6           0       -0.702996   -0.543547    0.000000
      5          8           0       -2.834635    0.590623    0.000000
      6          8           0       -2.821274   -1.650630    0.000000
      7          1           0       -0.315050    1.359590    0.882550
      8         35           0        1.918754    0.640501    0.000000
      9          1           0       -0.315050    1.359590   -0.882550
     10          1           0       -2.095316   -2.303920    0.000000
 ---------------------------------------------------------------------

 SCF Done:  E(UwB97XD) =  -2915.91828966     A.U. after   17 cycles
 ******    2 imaginary frequencies (negative Signs) ******
    2 imaginary frequencies ignored.
 SCF Done:  E(UwB97XD) =  -2915.91829026     A.U. after   13 cycles
 SCF Done:  E(UwB97XD) =  -2915.91829026     A.U. after   13 cycles
 SCF Done:  E(UwB97XD) =  -2915.91828978     A.U. after   11 cycles
 SCF Done:  E(UwB97XD) =  -2915.91828978     A.U. after   11 cycles
 SCF Done:  E(UwB97XD) =  -2915.91829759     A.U. after   10 cycles
 SCF Done:  E(UwB97XD) =  -2915.91828169     A.U. after   10 cycles
 SCF Done:  E(UwB97XD) =  -2915.91828962     A.U. after    9 cycles
 SCF Done:  E(UwB97XD) =  -2915.91828962     A.U. after    9 cycles
 SCF Done:  E(UwB97XD) =  -2915.91830200     A.U. after   10 cycles
 SCF Done:  E(UwB97XD) =  -2915.91789342     A.U. after   12 cycles
 SCF Done:  E(UwB97XD) =  -2915.91863697     A.U. after   12 cycles
 SCF Done:  E(UwB97XD) =  -2915.91902384     A.U. after   11 cycles
 SCF Done:  E(UwB97XD) =  -2915.91750358     A.U. after   11 cycles
 SCF Done:  E(UwB97XD) =  -2915.91816508     A.U. after   12 cycles
 SCF Done:  E(UwB97XD) =  -2915.91828724     A.U. after   12 cycles
 SCF Done:  E(UwB97XD) =  -2915.91822466     A.U. after   13 cycles
 SCF Done:  E(UwB97XD) =  -2915.91822466     A.U. after   13 cycles
 SCF Done:  E(UwB97XD) =  -2915.91816020     A.U. after   12 cycles
 SCF Done:  E(UwB97XD) =  -2915.91823874     A.U. after   12 cycles

 Alpha  occ. eigenvalues -- -483.00434 -62.55634 -56.34815 -56.34520 -56.34511
 Alpha  occ. eigenvalues --  -19.11054 -19.03639 -19.03225 -10.20694 -10.18922
 Alpha  occ. eigenvalues --  -10.14614  -8.68343  -6.50459  -6.49321  -6.49282
 Alpha  occ. eigenvalues --   -2.60448  -2.60119  -2.60089  -2.59172  -2.59171
 Alpha  occ. eigenvalues --   -1.01560  -0.93896  -0.92475  -0.76101  -0.63899
 Alpha  occ. eigenvalues --   -0.53387  -0.49063  -0.41594  -0.38973  -0.35037
 Alpha  occ. eigenvalues --   -0.34181  -0.33059  -0.31862  -0.27166  -0.26818
 Alpha  occ. eigenvalues --   -0.22159  -0.21594  -0.21388  -0.20059  -0.12271
 Alpha  occ. eigenvalues --   -0.00081
 Alpha virt. eigenvalues --    0.19522   0.23542   0.24059   0.27134   0.27970
 Alpha virt. eigenvalues --    0.32436   0.34433   0.37181   0.38615   0.44282
 Alpha virt. eigenvalues --    0.48723   0.48957   0.49048   0.53366   0.56150

  Beta  occ. eigenvalues -- -483.00434 -62.55634 -56.34815 -56.34520 -56.34512
  Beta  occ. eigenvalues --  -19.10973 -19.03266 -19.02398 -10.20557 -10.18971
  Beta  occ. eigenvalues --  -10.14137  -8.68343  -6.50460  -6.49321  -6.49283
  Beta  occ. eigenvalues --   -2.60448  -2.60119  -2.60090  -2.59172  -2.59171
  Beta  occ. eigenvalues --   -1.01162  -0.92296  -0.91683  -0.75997  -0.63236
  Beta  occ. eigenvalues --   -0.52405  -0.48384  -0.40912  -0.37964  -0.34356
  Beta  occ. eigenvalues --   -0.32961  -0.32884  -0.31037  -0.26735  -0.22515
  Beta  occ. eigenvalues --   -0.21482  -0.21301  -0.19662  -0.19397  -0.11432
  Beta virt. eigenvalues --    0.19525   0.23536   0.23859   0.24954   0.27154
  Beta virt. eigenvalues --    0.27978   0.34528   0.34624   0.37185   0.41074
  Beta virt. eigenvalues --    0.44727   0.48754   0.49074   0.49148   0.53914

 Mulliken charges and spin densities:
               1          2
     1  C   -0.110234  -0.027852
     2  C    0.096375   0.119704
     3  O   -0.354557   0.319525
     4  C   -0.115430   0.385115
     5  O   -0.347412   0.146230
     6  O   -0.206346   0.025035
     7  H    0.061875   0.019251
     8  Br  -0.216537  -0.003039
     9  H    0.061875   0.019251
    10  H    0.130391  -0.003221
 Sum of Mulliken charges =  -1.00000   1.00000

 Dipole moment (field-independent basis, Debye):
    X=              4.2643    Y=              1.4083    Z=             -0.0000  Tot=              4.4909
 Quadrupole moment (field-independent basis, Debye-Ang):
   XX=            -83.4340   YY=            -60.8972   ZZ=            -54.0661
   XY=             -0.5615   XZ=              0.0000   YZ=              0.0000

  Exact polarizability:  94.171   5.552  65.130  -0.000  -0.000  43.042
 Approx polarizability:  91.928  -4.545  76.206   0.000   0.000  50.754

                      1                      2                      3
                     A"                     A"                     A'
 Frequencies --   -297.7035              -133.6247                58.6077
 Red. masses --      4.2335                 3.5927                 8.6984
 Frc consts  --      0.2211                 0.0378                 0.0176
 IR Inten    --      0.1320                 8.6756                 9.5554

                      4                      5                      6
                     A"                     A'                     A'
 Frequencies --     83.0962               145.5757               274.7120
 Red. masses --     10.7787                15.8367                 7.6024
 Frc consts  --      0.0439                 0.1977                 0.3380
 IR Inten    --      1.6994                24.7638                 9.6876

                      7                      8                      9
                     A'                     A"                     A'
 Frequencies --    529.5007               570.3455               616.4793
 Red. masses --     11.8046                 9.3678                 6.0425
 Frc consts  --      1.9500                 1.7954                 1.3530
 IR Inten    --      1.9818                16.6747                 5.0382

                     10                     11                     12
                     A"                     A'                     A'
 Frequencies --    712.2986               721.1256               798.9536
 Red. masses --      1.0796                 5.4122                 7.9142
 Frc consts  --      0.3227                 1.6582                 2.9765
 IR Inten    --     74.2757                39.6898                24.5446

                     13                     14                     15
                     A"                     A'                     A"
 Frequencies --    810.9168              1068.1058              1072.8888
 Red. masses --      1.4968                 3.2070                 1.0543
 Frc consts  --      0.5799                 2.1557                 0.7151
 IR Inten    --      4.1253                38.8814                 0.3498

                     16                     17                     18
                     A'                     A'                     A'
 Frequencies --   1157.6799              1231.5031              1416.8690
 Red. masses --      2.2501                 1.4999                 1.5469
 Frc consts  --      1.7768                 1.3402                 1.8296
 IR Inten    --     99.8309                81.4099               308.7793

                     19                     20                     21
                     A'                     A'                     A'
 Frequencies --   1430.1580              1902.7437              1959.8912
 Red. masses --      1.4782                10.7021                12.3507
 Frc consts  --      1.7814                22.8287                27.9514
 IR Inten    --    299.3868               489.1348                92.1012

                     22                     23                     24
                     A'                     A"                     A'
 Frequencies --   3065.5712              3101.5203              3652.6858
 Red. masses --      1.0579                 1.1092                 1.0631
 Frc consts  --      5.8574                 6.2864                 8.3571
 IR Inten    --     41.5100                16.1787                52.7306

 - Thermochemistry -
 -------------------
 Temperature   298.150 Kelvin.  Pressure   1.00000 Atm.
 Atom     1 has atomic number  6 and mass  12.00000

 Molecular mass:   165.92656 amu.
 Principal axes and moments of inertia in atomic units:
                           1         2         3
     Eigenvalues --   332.584572400.733542722.10513
           X            0.95133  -0.30818   0.00000
           Y            0.30818   0.95133   0.00000
           Z            0.00000  -0.00000   1.00000
 This molecule is an asymmetric top.
 Rotational symmetry number  1.
 Rotational temperatures (Kelvin)      0.26043     0.03608     0.03182
 Rotational constants (GHZ):           5.42641     0.75175     0.66299
    2 imaginary frequencies ignored.
 Zero-point vibrational energy     157794.8 (Joules/Mol)
                                   37.71386 (Kcal/Mol)
 Warning -- explicit consideration of   7 degrees of freedom as
           vibrations may cause significant error
 Vibrational temperatures:     84.32   119.56   209.45   395.25   761.83
          (Kelvin)            820.60   886.98  1024.84  1037.54  1149.52
                             1166.73  1536.77  1543.65  1665.64  1771.86
                             2038.56  2057.68  2737.62  2819.85  4410.67
                             4462.40  5255.40

 Zero-point correction=                           0.060101 (Hartree/Particle)
 Thermal correction to Energy=                    0.066625
 Thermal correction to Enthalpy=                  0.067569
 Thermal correction to Gibbs Free Energy=         0.026165
 Sum of electronic and zero-point Energies=          -2915.858189
 Sum of electronic and thermal Energies=             -2915.851665
 Sum of electronic and thermal Enthalpies=           -2915.850721
 Sum of electronic and thermal Free Energies=        -2915.892125

                     E (Thermal)             CV                S
                      KCal/Mol        Cal/Mol-Kelvin    Cal/Mol-Kelvin
 Total                   41.808             20.940             87.142
 Electronic               0.000              0.000              1.377
 Translational            0.889              2.981             41.227
 Rotational               0.889              2.981             29.165
 Vibrational             40.030             14.979             15.373
 Vibration     1          0.596              1.974              4.504
 Vibration     2          0.600              1.961              3.816
 Vibration     3          0.617              1.907              2.729
 Vibration     4          0.677              1.720              1.566
 Vibration     5          0.884              1.185              0.588
 Vibration     6          0.926              1.095              0.504
 Vibration     7          0.976              0.997              0.422

 WARNING:      2 modes have imaginary frequencies.
 Normal termination of Gaussian 16 at Mon May 27 18:35:12 2024.
