 Gaussian 16, Revision A.03,
 Gaussian 16:  ES64L-G16RevA.03 25-Dec-2016

 ------------------
 #p wB97XD gen freq
 ------------------

 -------
 3bp PES
 -------
 Symbolic Z-matrix:
 Charge = -1 Multiplicity = 2

                         Standard orientation:
 ---------------------------------------------------------------------
 Center     Atomic      Atomic             Coordinates (Angstroms)
 Number     Number       Type             X           Y           Z
 ---------------------------------------------------------------------
      1          6           0        0.000000    0.785581    0.000000
      2          6           0       -2.246967   -0.456155    0.000000
      3          8           0       -0.185489   -1.633499    0.000000
      4          6           0       -0.702996   -0.543547    0.000000
      5          8           0       -2.834635    0.590623    0.000000
      6          8           0       -2.821274   -1.650630    0.000000
      7          1           0       -0.315050    1.359590    0.882550
      8         35           0        1.918754    0.640501    0.000000
      9          1           0       -0.315050    1.359590   -0.882550
     10          1           0       -2.095316   -2.303920    0.000000
 ---------------------------------------------------------------------

 SCF Done:  E(UwB97XD) =  -2915.91828966     A.U. after   17 cycles

 The electronic state is 2-A".
 Alpha  occ. eigenvalues -- -483.00434 -62.55635 -56.34816 -56.34521 -56.34512
 Alpha  occ. eigenvalues --  -19.11087 -19.03632 -19.03244 -10.20686 -10.18923
 Alpha  occ. eigenvalues --  -10.14606  -8.68344  -6.50460  -6.49322  -6.49283
 Alpha  occ. eigenvalues --   -2.60449  -2.60120  -2.60090  -2.59172  -2.59172
 Alpha  occ. eigenvalues --   -1.01424  -0.93909  -0.92394  -0.76102  -0.63898
 Alpha  occ. eigenvalues --   -0.53283  -0.48938  -0.41596  -0.38971  -0.35027
 Alpha  occ. eigenvalues --   -0.34156  -0.33042  -0.31859  -0.27108  -0.26826
 Alpha  occ. eigenvalues --   -0.22139  -0.21594  -0.21368  -0.20070  -0.12273
 Alpha  occ. eigenvalues --   -0.00079
 Alpha virt. eigenvalues --    0.19522   0.23541   0.24058   0.27127   0.27967
 Alpha virt. eigenvalues --    0.32449   0.34196   0.37180   0.38622   0.44283
 Alpha virt. eigenvalues --    0.48722   0.48948   0.49046   0.53365   0.56149

  Beta  occ. eigenvalues -- -483.00435 -62.55635 -56.34816 -56.34521 -56.34512
  Beta  occ. eigenvalues --  -19.11006 -19.03261 -19.02417 -10.20550 -10.18973
  Beta  occ. eigenvalues --  -10.14127  -8.68344  -6.50460  -6.49321  -6.49284
  Beta  occ. eigenvalues --   -2.60449  -2.60120  -2.60090  -2.59172  -2.59172
  Beta  occ. eigenvalues --   -1.01019  -0.92301  -0.91619  -0.75997  -0.63234
  Beta  occ. eigenvalues --   -0.52271  -0.48288  -0.40912  -0.37961  -0.34343
  Beta  occ. eigenvalues --   -0.32932  -0.32871  -0.31037  -0.26678  -0.22514
  Beta  occ. eigenvalues --   -0.21482  -0.21305  -0.19634  -0.19408  -0.11436
  Beta virt. eigenvalues --    0.19524   0.23536   0.23860   0.24958   0.27147
  Beta virt. eigenvalues --    0.27975   0.34291   0.34629   0.37184   0.41083
  Beta virt. eigenvalues --    0.44729   0.48753   0.49065   0.49148   0.53913

 Mulliken charges and spin densities:
               1          2
     1  C   -0.110193  -0.027923
     2  C    0.098403   0.119015
     3  O   -0.354748   0.319304
     4  C   -0.115745   0.386447
     5  O   -0.347440   0.145707
     6  O   -0.213763   0.025127
     7  H    0.061866   0.019311
     8  Br  -0.216544  -0.003028
     9  H    0.061866   0.019311
    10  H    0.136297  -0.003270
 Sum of Mulliken charges =  -1.00000   1.00000

 Dipole moment (field-independent basis, Debye):
    X=              4.2735    Y=              1.4020    Z=              0.0000  Tot=              4.4976
 Quadrupole moment (field-independent basis, Debye-Ang):
   XX=            -83.4804   YY=            -60.8666   ZZ=            -54.0750
   XY=             -0.5721   XZ=             -0.0000   YZ=              0.0000

  Exact polarizability:  94.188   5.593  65.244  -0.000  -0.000  43.045
 Approx polarizability:  92.018  -4.550  76.316  -0.000   0.000  50.754

 ******    2 imaginary frequencies (negative Signs) ******

                      1                      2                      3
                     A"                     A"                     A'
 Frequencies --   -297.4712              -133.4637                58.1971
 Red. masses --      4.2293                 3.5958                 8.6869
 Frc consts  --      0.2205                 0.0377                 0.0173
 IR Inten    --      0.1314                 8.6837                 9.6383

                      4                      5                      6
                     A"                     A'                     A'
 Frequencies --     83.2971               145.4555               274.5685
 Red. masses --     10.7779                15.8261                 7.6044
 Frc consts  --      0.0441                 0.1973                 0.3378
 IR Inten    --      1.6985                24.7686                 9.6884

                      7                      8                      9
                     A'                     A"                     A'
 Frequencies --    529.5217               570.7415               616.5426
 Red. masses --     11.8048                 9.3685                 6.0425
 Frc consts  --      1.9502                 1.7980                 1.3533
 IR Inten    --      1.9904                16.6662                 5.0447

                     10                     11                     12
                     A"                     A'                     A'
 Frequencies --    712.7235               721.0693               798.8898
 Red. masses --      1.0795                 5.4137                 7.9093
 Frc consts  --      0.3231                 1.6584                 2.9741
 IR Inten    --     74.2657                39.6689                24.5057

                     13                     14                     15
                     A"                     A'                     A"
 Frequencies --    810.9837              1068.1183              1072.8366
 Red. masses --      1.4967                 3.2050                 1.0544
 Frc consts  --      0.5800                 2.1544                 0.7151
 IR Inten    --      4.1433                38.9389                 0.3502

                     16                     17                     18
                     A'                     A'                     A'
 Frequencies --   1157.1847              1231.4615              1416.8186
 Red. masses --      2.2488                 1.5002                 1.5461
 Frc consts  --      1.7742                 1.3404                 1.8286
 IR Inten    --     99.2593                81.7974               308.2830

                     19                     20                     21
                     A'                     A'                     A'
 Frequencies --   1430.1006              1902.6524              1959.7101
 Red. masses --      1.4800                10.7006                12.3529
 Frc consts  --      1.7834                22.8233                27.9513
 IR Inten    --    300.6483               488.7058                92.2737

                     22                     23                     24
                     A'                     A"                     A'
 Frequencies --   3065.5088              3101.4319              3652.5806
 Red. masses --      1.0579                 1.1092                 1.0631
 Frc consts  --      5.8571                 6.2861                 8.3566
 IR Inten    --     41.4289                16.1762                52.6077

 - Thermochemistry -
 -------------------
 Temperature   298.150 Kelvin.  Pressure   1.00000 Atm.
 Atom     1 has atomic number  6 and mass  12.00000

 Molecular mass:   165.92656 amu.
 Principal axes and moments of inertia in atomic units:
                           1         2         3
     Eigenvalues --   332.584572400.733542722.10513
           X            0.95133  -0.30818   0.00000
           Y            0.30818   0.95133   0.00000
           Z            0.00000  -0.00000   1.00000
 This molecule is an asymmetric top.
 Rotational symmetry number  1.
 Rotational temperatures (Kelvin)      0.26043     0.03608     0.03182
 Rotational constants (GHZ):           5.42641     0.75175     0.66299
    2 imaginary frequencies ignored.
 Zero-point vibrational energy     157789.8 (Joules/Mol)
                                   37.71267 (Kcal/Mol)
 Warning -- explicit consideration of   7 degrees of freedom as
           vibrations may cause significant error
 Vibrational temperatures:     83.73   119.85   209.28   395.04   761.86
          (Kelvin)            821.17   887.07  1025.45  1037.46  1149.42
                             1166.82  1536.78  1543.57  1664.93  1771.80
                             2038.49  2057.60  2737.49  2819.59  4410.58
                             4462.27  5255.25

 Zero-point correction=                           0.060099 (Hartree/Particle)
 Thermal correction to Energy=                    0.066624
 Thermal correction to Enthalpy=                  0.067568
 Thermal correction to Gibbs Free Energy=         0.026159
 Sum of electronic and zero-point Energies=          -2915.858191
 Sum of electronic and thermal Energies=             -2915.851666
 Sum of electronic and thermal Enthalpies=           -2915.850722
 Sum of electronic and thermal Free Energies=        -2915.892131

                     E (Thermal)             CV                S
                      KCal/Mol        Cal/Mol-Kelvin    Cal/Mol-Kelvin
 Total                   41.807             20.939             87.153
 Electronic               0.000              0.000              1.377
 Translational            0.889              2.981             41.227
 Rotational               0.889              2.981             29.165
 Vibrational             40.029             14.978             15.383
 Vibration     1          0.596              1.974              4.517
 Vibration     2          0.600              1.961              3.812
 Vibration     3          0.617              1.908              2.731
 Vibration     4          0.677              1.720              1.567
 Vibration     5          0.884              1.185              0.588
 Vibration     6          0.927              1.095              0.503
 Vibration     7          0.976              0.997              0.422

 Normal termination of Gaussian 16 at Mon May 27 10:34:52 2024.
