 Gaussian 16, Revision A.03,
 Gaussian 16:  ES64L-G16RevA.03 25-Dec-2016

 ------------------
 #p wB97XD gen freq
 ------------------

 -------
 3bp PES
 -------
 Symbolic Z-matrix:
 Charge =  0 Multiplicity = 1

                         Standard orientation:
 ---------------------------------------------------------------------
 Center     Atomic      Atomic             Coordinates (Angstroms)
 Number     Number       Type             X           Y           Z
 ---------------------------------------------------------------------
      1          6           0        0.000000    0.785581    0.000000
      2          6           0       -2.246967   -0.456155    0.000000
      3          8           0       -0.185489   -1.633499    0.000000
      4          6           0       -0.702996   -0.543547    0.000000
      5          8           0       -2.834635    0.590623    0.000000
      6          8           0       -2.821274   -1.650630    0.000000
      7          1           0       -0.315050    1.359590    0.882550
      8         35           0        1.918754    0.640501    0.000000
      9          1           0       -0.315050    1.359590   -0.882550
     10          1           0       -2.095316   -2.303920    0.000000
 ---------------------------------------------------------------------

 SCF Done:  E(RwB97XD) =  -2915.90332813     A.U. after   14 cycles

 The electronic state is 1-A'.
 Alpha  occ. eigenvalues -- -483.17068 -62.72258 -56.51487 -56.51117 -56.51114
 Alpha  occ. eigenvalues --  -19.33928 -19.32601 -19.28679 -10.46107 -10.44548
 Alpha  occ. eigenvalues --  -10.38869  -8.84967  -6.67243  -6.65843  -6.65831
 Alpha  occ. eigenvalues --   -2.77197  -2.76795  -2.76787  -2.75658  -2.75657
 Alpha  occ. eigenvalues --   -1.25014  -1.20712  -1.16009  -0.94852  -0.85116
 Alpha  occ. eigenvalues --   -0.76333  -0.71740  -0.64665  -0.60539  -0.59081
 Alpha  occ. eigenvalues --   -0.55851  -0.55634  -0.52721  -0.50075  -0.48305
 Alpha  occ. eigenvalues --   -0.44652  -0.43241  -0.38550  -0.38105  -0.36713
 Alpha virt. eigenvalues --   -0.02911   0.04515   0.09893   0.10878   0.12383
 Alpha virt. eigenvalues --    0.12474   0.13141   0.15795   0.20507   0.20607
 Alpha virt. eigenvalues --    0.25036   0.31311   0.31652   0.32871   0.33368

 Mulliken charges:
               1
     1  C   -0.160189
     2  C    0.212664
     3  O   -0.180616
     4  C    0.081994
     5  O   -0.209808
     6  O   -0.133160
     7  H    0.130827
     8  Br  -0.048736
     9  H    0.130827
    10  H    0.176198
 Sum of Mulliken charges =  -0.00000

 Dipole moment (field-independent basis, Debye):
    X=              0.3823    Y=             -0.2729    Z=              0.0000  Tot=              0.4697
 Quadrupole moment (field-independent basis, Debye-Ang):
   XX=            -63.1661   YY=            -50.3611   ZZ=            -49.7677
   XY=              3.2622   XZ=             -0.0000   YZ=              0.0000

  Exact polarizability:  72.711   2.408  61.499   0.000  -0.000  39.430
 Approx polarizability:  74.992  -6.771  78.209   0.000   0.000  47.307

                      1                      2                      3
                     A"                     A"                     A'
 Frequencies --     57.7659               101.9143               144.5985
 Red. masses --      4.1943                 5.3707                 9.4302
 Frc consts  --      0.0082                 0.0329                 0.1162
 IR Inten    --      4.4503                 9.1594                 5.6195

                      4                      5                      6
                     A'                     A'                     A"
 Frequencies --    213.5883               349.9826               383.5303
 Red. masses --     20.0854                 6.4230                 3.7376
 Frc consts  --      0.5399                 0.4635                 0.3239
 IR Inten    --      9.8275                34.6848                 9.8477

                      7                      8                      9
                     A'                     A'                     A"
 Frequencies --    519.7885               669.4662               671.4694
 Red. masses --     10.9780                 6.6109                 2.0839
 Frc consts  --      1.7475                 1.7457                 0.5536
 IR Inten    --      4.8965                39.7193                58.0993

                     10                     11                     12
                     A"                     A'                     A'
 Frequencies --    725.1754               745.0344               827.3010
 Red. masses --      1.2207                 5.5637                 7.5601
 Frc consts  --      0.3782                 1.8195                 3.0486
 IR Inten    --     47.2017                 8.8257                 8.1366

                     13                     14                     15
                     A"                     A'                     A"
 Frequencies --    896.8771              1078.0840              1148.1533
 Red. masses --      2.5505                 2.4636                 1.1500
 Frc consts  --      1.2088                 1.6870                 0.8932
 IR Inten    --      2.9401                88.8783                 0.7229

                     16                     17                     18
                     A'                     A'                     A'
 Frequencies --   1228.3827              1305.1405              1404.7200
 Red. masses --      1.8031                 1.7564                 1.1365
 Frc consts  --      1.6030                 1.7627                 1.3213
 IR Inten    --     17.5776                71.5564               115.6635

                     19                     20                     21
                     A'                     A'                     A'
 Frequencies --   1436.1266              1860.0056              1910.1362
 Red. masses --      2.8733                12.4659                10.9561
 Frc consts  --      3.4916                25.4098                23.5524
 IR Inten    --    287.9672               103.8670               221.9625

                     22                     23                     24
                     A'                     A"                     A'
 Frequencies --   3108.5344              3167.2206              3682.6333
 Red. masses --      1.0607                 1.1042                 1.0647
 Frc consts  --      6.0387                 6.5261                 8.5070
 IR Inten    --     12.5566                 5.0918               122.2806

 - Thermochemistry -
 -------------------
 Temperature   298.150 Kelvin.  Pressure   1.00000 Atm.
 Atom     1 has atomic number  6 and mass  12.00000

 Molecular mass:   165.92656 amu.
 Principal axes and moments of inertia in atomic units:
                           1         2         3
     Eigenvalues --   332.584572400.733542722.10513
           X            0.95133  -0.30818   0.00000
           Y            0.30818   0.95133   0.00000
           Z            0.00000  -0.00000   1.00000
 This molecule is an asymmetric top.
 Rotational symmetry number  1.
 Rotational temperatures (Kelvin)      0.26043     0.03608     0.03182
 Rotational constants (GHZ):           5.42641     0.75175     0.66299
 Zero-point vibrational energy     165297.8 (Joules/Mol)
                                   39.50712 (Kcal/Mol)
 Warning -- explicit consideration of   7 degrees of freedom as
           vibrations may cause significant error
 Vibrational temperatures:     83.11   146.63   208.04   307.31   503.55
          (Kelvin)            551.81   747.86   963.21   966.09  1043.37
                             1071.94  1190.30  1290.41  1551.12  1651.94
                             1767.37  1877.81  2021.08  2066.27  2676.13
                             2748.26  4472.49  4556.92  5298.49

 Zero-point correction=                           0.062959 (Hartree/Particle)
 Thermal correction to Energy=                    0.070094
 Thermal correction to Enthalpy=                  0.071038
 Thermal correction to Gibbs Free Energy=         0.029385
 Sum of electronic and zero-point Energies=          -2915.840370
 Sum of electronic and thermal Energies=             -2915.833234
 Sum of electronic and thermal Enthalpies=           -2915.832290
 Sum of electronic and thermal Free Energies=        -2915.873943

                     E (Thermal)             CV                S
                      KCal/Mol        Cal/Mol-Kelvin    Cal/Mol-Kelvin
 Total                   43.985             23.419             87.667
 Electronic               0.000              0.000              0.000
 Translational            0.889              2.981             41.227
 Rotational               0.889              2.981             29.165
 Vibrational             42.207             17.458             17.275
 Vibration     1          0.596              1.974              4.532
 Vibration     2          0.604              1.948              3.417
 Vibration     3          0.616              1.908              2.742
 Vibration     4          0.644              1.820              2.013
 Vibration     5          0.727              1.575              1.166
 Vibration     6          0.753              1.505              1.025
 Vibration     7          0.875              1.206              0.610

 Normal termination of Gaussian 16 at Mon May 27 10:33:24 2024.
