 Gaussian 16, Revision A.03,
 Gaussian 16:  ES64L-G16RevA.03 25-Dec-2016

 ------------------------
 # wB97XD gen NoSymm freq
 ------------------------

 -------
 3bp PES
 -------
 Symbolic Z-matrix:
 Charge =  0 Multiplicity = 1

                          Input orientation:
 ---------------------------------------------------------------------
 Center     Atomic      Atomic             Coordinates (Angstroms)
 Number     Number       Type             X           Y           Z
 ---------------------------------------------------------------------
      1          6           0        0.238406   -0.744691    0.000318
      2          6           0       -2.285508   -0.274983    0.000099
      3          8           0       -0.700553    1.492430   -0.000084
      4          6           0       -0.847897    0.294891    0.000093
      5          8           0       -2.513049   -1.453678    0.000269
      6          8           0       -3.207222    0.677405   -0.000101
      7          1           0        0.120514   -1.388911   -0.882133
      8         35           0        2.013479   -0.001873    0.000289
      9          1           0        0.120422   -1.388623    0.882966
     10          1           0       -2.724350    1.526308   -0.000204
 ---------------------------------------------------------------------

 SCF Done:  E(RwB97XD) =  -2915.90332638     A.U. after   14 cycles

 Alpha  occ. eigenvalues -- -483.17068 -62.72258 -56.51487 -56.51118 -56.51114
 Alpha  occ. eigenvalues --  -19.33927 -19.32601 -19.28679 -10.46106 -10.44548
 Alpha  occ. eigenvalues --  -10.38869  -8.84968  -6.67244  -6.65843  -6.65832
 Alpha  occ. eigenvalues --   -2.77198  -2.76795  -2.76787  -2.75658  -2.75658
 Alpha  occ. eigenvalues --   -1.25013  -1.20713  -1.16008  -0.94853  -0.85116
 Alpha  occ. eigenvalues --   -0.76333  -0.71739  -0.64665  -0.60539  -0.59081
 Alpha  occ. eigenvalues --   -0.55851  -0.55634  -0.52720  -0.50075  -0.48305
 Alpha  occ. eigenvalues --   -0.44652  -0.43240  -0.38551  -0.38105  -0.36713
 Alpha virt. eigenvalues --   -0.02911   0.04515   0.09893   0.10878   0.12383
 Alpha virt. eigenvalues --    0.12475   0.13142   0.15795   0.20507   0.20607
 Alpha virt. eigenvalues --    0.25036   0.31312   0.31653   0.32871   0.33367

 Mulliken charges:
               1
     1  C   -0.160263
     2  C    0.212674
     3  O   -0.180635
     4  C    0.082012
     5  O   -0.209814
     6  O   -0.133166
     7  H    0.130844
     8  Br  -0.048710
     9  H    0.130844
    10  H    0.176214
 Sum of Mulliken charges =  -0.00000

 Dipole moment (field-independent basis, Debye):
    X=              0.2770    Y=              0.3796    Z=             -0.0000  Tot=              0.4700
 Quadrupole moment (field-independent basis, Debye-Ang):
   XX=            -59.9456   YY=            -53.5867   ZZ=            -49.7677
   XY=             -6.4487   XZ=              0.0005   YZ=              0.0003

  Exact polarizability:  72.970   1.429  61.162   0.002  -0.003  39.420
 Approx polarizability:  71.259   4.461  81.942   0.001  -0.005  47.307

                      1                      2                      3
                      A                      A                      A
 Frequencies --     56.8561               102.1480               147.2710
 Red. masses --      4.0333                 5.6221                 9.7463
 Frc consts  --      0.0077                 0.0346                 0.1245
 IR Inten    --      4.9073                 8.5792                 4.2487

                      4                      5                      6
                      A                      A                      A
 Frequencies --    215.6237               368.3804               383.3028
 Red. masses --     20.1494                 6.7574                 3.7345
 Frc consts  --      0.5520                 0.5403                 0.3233
 IR Inten    --      8.5490                34.7780                 9.8701

                      7                      8                      9
                      A                      A                      A
 Frequencies --    520.1806               670.4147               671.9037
 Red. masses --     10.9737                 6.6219                 2.1196
 Frc consts  --      1.7495                 1.7536                 0.5638
 IR Inten    --      4.5205                40.5724                56.3419

                     10                     11                     12
                      A                      A                      A
 Frequencies --    726.6142               745.0287               828.3007
 Red. masses --      1.2089                 5.5878                 7.6372
 Frc consts  --      0.3760                 1.8274                 3.0872
 IR Inten    --     49.0129                 8.2888                 7.5637

                     13                     14                     15
                      A                      A                      A
 Frequencies --    896.5022              1077.5342              1147.8508
 Red. masses --      2.5563                 2.4624                 1.1507
 Frc consts  --      1.2105                 1.6845                 0.8933
 IR Inten    --      2.9269                88.2510                 0.7272

                     16                     17                     18
                      A                      A                      A
 Frequencies --   1238.0537              1308.4440              1404.5932
 Red. masses --      1.8680                 1.7708                 1.1221
 Frc consts  --      1.6870                 1.7862                 1.3043
 IR Inten    --      8.2459                64.5061                97.7071

                     19                     20                     21
                      A                      A                      A
 Frequencies --   1442.2053              1859.9381              1910.9661
 Red. masses --      2.6813                12.4548                10.8367
 Frc consts  --      3.2859                25.3854                23.3160
 IR Inten    --    324.9184               103.4019               220.8211

                     22                     23                     24
                      A                      A                      A
 Frequencies --   3108.8908              3167.6164              3687.2200
 Red. masses --      1.0607                 1.1041                 1.0646
 Frc consts  --      6.0402                 6.5274                 8.5276
 IR Inten    --     12.5497                 5.1060               122.0262

 - Thermochemistry -
 -------------------
 Temperature   298.150 Kelvin.  Pressure   1.00000 Atm.
 Atom     1 has atomic number  6 and mass  12.00000

 Molecular mass:   165.92656 amu.
 Principal axes and moments of inertia in atomic units:
                           1         2         3
     Eigenvalues --   332.584572400.733542722.10513
           X            0.99997  -0.00758  -0.00005
           Y            0.00758   0.99997   0.00015
           Z            0.00005  -0.00016   1.00000
 This molecule is an asymmetric top.
 Rotational symmetry number  1.
 Rotational temperatures (Kelvin)      0.26043     0.03608     0.03182
 Rotational constants (GHZ):           5.42641     0.75175     0.66299
 Zero-point vibrational energy     165598.1 (Joules/Mol)
                                   39.57889 (Kcal/Mol)
 Warning -- explicit consideration of   7 degrees of freedom as
           vibrations may cause significant error
 Vibrational temperatures:     81.80   146.97   211.89   310.23   530.02
          (Kelvin)            551.49   748.42   964.58   966.72  1045.44
                             1071.93  1191.74  1289.87  1550.33  1651.50
                             1781.28  1882.56  2020.90  2075.01  2676.04
                             2749.45  4473.00  4557.49  5305.09

 Zero-point correction=                           0.063073 (Hartree/Particle)
 Thermal correction to Energy=                    0.070180
 Thermal correction to Enthalpy=                  0.071124
 Thermal correction to Gibbs Free Energy=         0.029523
 Sum of electronic and zero-point Energies=          -2915.840253
 Sum of electronic and thermal Energies=             -2915.833146
 Sum of electronic and thermal Enthalpies=           -2915.832202
 Sum of electronic and thermal Free Energies=        -2915.873803

                     E (Thermal)             CV                S
                      KCal/Mol        Cal/Mol-Kelvin    Cal/Mol-Kelvin
 Total                   44.039             23.360             87.556
 Electronic               0.000              0.000              0.000
 Translational            0.889              2.981             41.227
 Rotational               0.889              2.981             29.165
 Vibrational             42.261             17.399             17.164
 Vibration     1          0.596              1.975              4.563
 Vibration     2          0.604              1.947              3.413
 Vibration     3          0.617              1.906              2.707
 Vibration     4          0.645              1.817              1.996
 Vibration     5          0.741              1.537              1.087
 Vibration     6          0.753              1.506              1.026
 Vibration     7          0.875              1.205              0.610

 Optimization completed.
    -- Stationary point found.
 Normal termination of Gaussian 16 at Mon Apr 22 20:52:01 2024.
