 Gaussian 16, Revision A.03,
 Gaussian 16:  ES64L-G16RevA.03 25-Dec-2016

 --------------------------------
 #p wB97XD gen scf=(MaxCycle=512)
 --------------------------------

 -------
 3bp PES
 -------
 Symbolic Z-matrix:
 Charge =  0 Multiplicity = 1

                         Standard orientation:
 ---------------------------------------------------------------------
 Center     Atomic      Atomic             Coordinates (Angstroms)
 Number     Number       Type             X           Y           Z
 ---------------------------------------------------------------------
      1          6           0        0.000000    0.785581    0.000000
      2          6           0       -2.246967   -0.456155    0.000000
      3          8           0       -0.185489   -1.633499    0.000000
      4          6           0       -0.702996   -0.543547    0.000000
      5          8           0       -2.834635    0.590623    0.000000
      6          8           0       -2.821274   -1.650630    0.000000
      7          1           0       -0.315050    1.359590    0.882550
      8         35           0        1.918754    0.640501    0.000000
      9          1           0       -0.315050    1.359590   -0.882550
     10          1           0       -2.095316   -2.303920    0.000000
 ---------------------------------------------------------------------

 SCF Done:  E(RwB97XD) =  -2915.90332813     A.U. after   14 cycles

 The electronic state is 1-A'.
 Alpha  occ. eigenvalues -- -483.17068 -62.72258 -56.51487 -56.51117 -56.51114
 Alpha  occ. eigenvalues --  -19.33928 -19.32601 -19.28679 -10.46107 -10.44548
 Alpha  occ. eigenvalues --  -10.38869  -8.84967  -6.67243  -6.65843  -6.65831
 Alpha  occ. eigenvalues --   -2.77197  -2.76795  -2.76787  -2.75658  -2.75657
 Alpha  occ. eigenvalues --   -1.25014  -1.20712  -1.16009  -0.94852  -0.85116
 Alpha  occ. eigenvalues --   -0.76333  -0.71740  -0.64665  -0.60539  -0.59081
 Alpha  occ. eigenvalues --   -0.55851  -0.55634  -0.52721  -0.50075  -0.48305
 Alpha  occ. eigenvalues --   -0.44652  -0.43241  -0.38550  -0.38105  -0.36713
 Alpha virt. eigenvalues --   -0.02911   0.04515   0.09893   0.10878   0.12383
 Alpha virt. eigenvalues --    0.12474   0.13141   0.15795   0.20507   0.20607
 Alpha virt. eigenvalues --    0.25036   0.31311   0.31652   0.32871   0.33368

 Mulliken charges:
               1
     1  C   -0.160189
     2  C    0.212664
     3  O   -0.180616
     4  C    0.081994
     5  O   -0.209808
     6  O   -0.133160
     7  H    0.130827
     8  Br  -0.048736
     9  H    0.130827
    10  H    0.176198
 Sum of Mulliken charges =  -0.00000

 Dipole moment (field-independent basis, Debye):
    X=              0.3823    Y=             -0.2729    Z=              0.0000  Tot=              0.4697
 Quadrupole moment (field-independent basis, Debye-Ang):
   XX=            -63.1661   YY=            -50.3611   ZZ=            -49.7677
   XY=              3.2622   XZ=             -0.0000   YZ=              0.0000

 Normal termination of Gaussian 16 at Wed Jun 12 16:25:35 2024.
